16
Lattice="2.6239204781349605 0.0 0.0 -1.3110340913209109 7.363728948728038 0.0 -1.309070280853735 -0.2936388116961828 8.039102365024664" Properties=species:S:1:pos:R:3:forces:R:3 source=Internal internal_id=mpf-TP-000802 energy_unit=eV forces_unit=eV/A stress_unit=eV/A^3 energy=-79.26068284 stress="-0.44051031233222704 0.00111049251181284 -0.027750426615137887 0.00111049251181284 -0.3366700176293073 -0.048244373090030795 -0.027750426615137887 -0.048244373090030795 -0.37812076856888815" pbc="T T T"
V       -0.61662746       3.09245552       3.50204201      -3.42535576      -7.50405291      -7.78015931
V        1.83766954       3.47325020       0.04051708       2.00123343       0.86412999      -4.65347323
V       -0.82863196       6.42788168       3.65900548       3.55045002      -2.58352932      -0.40583578
V       -1.72863567       5.29563216       6.65103076       1.84181929      -0.78272072      -1.74567128
Zn       0.04672685       6.78916757       0.91604768       1.68088405      -2.69657462       0.59293158
Zn       0.57104932       1.28701437       1.58487688      -1.12953833       2.26017231       1.40758023
Zn      -0.28244370       1.03565117       7.16726171       0.92244611      -2.02471623       2.52779829
Zn       1.24622956       1.79135723       5.54267167      -1.44272181       1.06093166      -3.14515535
O       -0.00130147       5.54111888       5.17384570      -4.08843633      -1.37844357      -1.10995107
O        0.57910900       4.94166829       0.11424369      -0.23722670       2.22075855       4.51928912
O       -0.25129151       6.78214955       7.06951427      -1.10420611       0.37153989       1.31421429
O        1.65437201       3.10935288       1.66270343      -0.08212038      -1.40669046       4.76321527
O       -0.70373853      -0.09016001       4.38295881      -0.62599104       7.45454534       1.84319527
O        0.62955309       3.69875230       4.09806106       4.30770931       6.22074894       7.71188249
O        0.63105693       5.50179058       2.78786423      -1.30272991      -0.77616106      -3.84256698
O       -0.49645416       3.52865589       6.47659028      -0.86621583      -1.29993779      -1.99729353
19
Lattice="4.844999499495639 0.0 0.0 1.7473408594088184 7.028745338791088 0.0 0.4513523015910821 3.1544560876984544 7.310086544649907" Properties=species:S:1:pos:R:3:forces:R:3 source=Internal internal_id=mpf-TP-000166 energy_unit=eV forces_unit=eV/A stress_unit=eV/A^3 energy=-96.88391543 stress="0.0040909242494920825 0.01253660620136294 -0.018019933348911343 0.01253660620136294 -0.06608886725430366 -0.03701322230653287 -0.018019933348911343 -0.03701322230653287 0.017032625071244582" pbc="T T T"
Yb       4.66334252       3.11765720       2.48295861      -0.27725058      -2.19242891       3.66030117
Yb       3.01010231       3.68446436       4.77438565      -0.51665982       0.03083403       0.24187093
Cu       6.18909437       7.62645128       5.42565588      -1.45131983       1.02590100       0.26197122
Ge       3.72128709       5.48205135       7.19142191      -1.85612884       3.48841430       0.99689073
Ge       3.44883594       7.39327355       4.79650597       2.72877680       1.70568358      -1.21600550
Ge       5.27678153       5.81853477       1.29262067       0.13324110      -0.74523312       2.84783449
Ge       0.71663901       0.69680942       1.47945187       7.18477935     -11.47261704       5.04664027
O        4.63150916       4.89649957       3.06518508      -0.69986374       6.21490145       1.34413675
O        3.17283404       3.33645855       7.17061010       0.31405444       1.07720345      -0.50123532
O        5.24879750       2.63231300       4.62579352       0.69790241       0.80439244       1.14473547
O        1.84272462       6.25689380       2.69169814      -0.58361486       2.44964849      -3.02588233
O        3.00125564       6.39214779       0.18652417      -0.40194144       1.62831712       0.75640885
O        5.31825048       4.57197483       4.86351023      -0.81302183      -1.58914816      -0.94394135
O        4.04674403       7.84231946       2.65285234      -3.08017145      -0.83382485      -2.09572955
O        2.42809654       3.52135414       1.40355124       1.19948299      -2.10348809      -1.18226440
O        4.84262232       1.96114018       0.97615972      -3.40283541       3.35813022      -7.70170586
O        2.32527546       6.12413129       5.72393665       1.97943516      -1.93295200       0.11679800
O        4.50668479       7.38466484       6.41976917      -0.17722589      -1.85513942      -0.63857895
O        5.14191174       8.41729269       4.19283172      -0.97763857       0.94140550       0.88775538
12
Lattice="5.176555698628481 0.0 0.0 2.5482865912944828 5.157746634957823 0.0 -2.540105951669331 -2.471657122664184 6.8160888611874375" Properties=species:S:1:pos:R:3:forces:R:3 source=Internal internal_id=mpf-TP-000379 energy_unit=eV forces_unit=eV/A stress_unit=eV/A^3 energy=-57.58427939 stress="-0.0832937440838233 -0.008843653705872376 0.017344558158715582 -0.008843653705872376 0.037445478539091165 0.02920263273261215 0.017344558158715582 0.02920263273261215 -0.01087514157540252" pbc="T T T"
V        4.31793705       0.28686001       3.21593296       7.60643511       2.25378419       2.80058182
V        2.75282986      -1.69919317       6.78042027       0.10968449       1.22327475      -2.62726411
F        0.06544017       0.38075916       4.86359294      -0.96177019      -0.53766165      -3.11246506
F        2.76289560       0.20388124       2.88437114      -5.94616461      -0.59398592      -0.75957792
F        5.50062187       2.25752969       1.40073352       0.94984054      -1.82860848      -1.26446270
F        3.23658909      -0.19733894       5.98976078      -0.31715011      -0.41031424      -1.02406828
F        1.99910173       3.72549036       3.33032738      -0.26263569      -0.22828917       0.06205351
F        4.27134046       2.17034075       3.04038460      -0.33268708      -2.97084688       0.80412374
F        1.45078743       2.45166260       6.23246125       1.62909482       0.34959280       0.36992891
F        3.58921009       1.01457488       0.24983692      -0.87958944       0.05839072       0.38519982
F        4.65886695       2.44390420       5.30051105      -0.83074378       2.46541134       1.65425438
F        0.20829552      -0.42626549       1.31643895      -0.76431405       0.21925254       2.71169590
10
Lattice="4.500284009603504 0.0 0.0 -2.249136891690702 5.864345947533953 0.0 -2.9380510139e-06 -0.0002645166824749 8.682971996973805" Properties=species:S:1:pos:R:3:forces:R:3 source=Internal internal_id=mpf-TP-000815 energy_unit=eV forces_unit=eV/A stress_unit=eV/A^3 energy=-47.51205572 stress="-0.06056340030823149 0.02905671251572416 -0.03589036163271919 0.02905671251572416 -0.055361453349450855 -0.00013927302215194077 -0.03589036163271919 -0.00013927302215194077 -0.12052280597727219" pbc="T T T"
Yb       1.14051928       5.03698493       8.13414739      -1.37900014      -0.61269182       0.40492135
Yb       1.59509367       2.49564843       2.12507056       0.39941067      -0.87305001       1.88031413
Nd       1.75851128       1.40695396       6.23631019       1.93394992       1.40443594       1.66557334
Nd      -0.42490407       4.88653067       3.66089728       1.42520582      -0.49675377       4.03086242
S        3.60498995       1.21822803       1.02406971       0.49549844       1.34028330      -0.23155479
S        2.02597330       3.60255564       4.42896694      -1.66539207      -0.48756057      -0.75825155
S       -0.70512670       5.78109816       1.45906056       0.47481498      -0.59876408      -2.13985232
S        0.87796096       2.39616194       8.59964152      -1.85309526       0.20410390      -2.64117057
S       -0.19725481       0.95122898       4.91496156      -2.70186937      -0.35183457      -2.17241732
S       -1.38013168       4.43566494       6.84205169       2.87047700       0.47183168      -0.03842470
20
Lattice="5.248599200577427 0.0 0.0 -2.6242472836401176 4.552853814552963 0.0 -1.22168918863e-05 -0.0005930216016843 29.302658995739158" Properties=species:S:1:pos:R:3:forces:R:3 source=Internal internal_id=mpf-TP-000476 energy_unit=eV forces_unit=eV/A stress_unit=eV/A^3 energy=-48.55169051 stress="0.007963530308930097 7.96563239927162e-05 -0.004665812366096911 7.96563239927162e-05 0.006491302197885623 -0.0005678459092392219 -0.004665812366096911 -0.0005678459092392219 0.004357984319178002" pbc="T T T"
Zn      -1.59936796       4.34168622      23.02992670       0.13131232      -0.43330575      -0.98888024
Zn       0.01406966       3.47286054       5.70903705      -0.13490358       0.39488124      -2.05772045
Zn       0.63653893       4.39308050       3.15015305      -0.08466126       0.62185019       0.31838677
Zn       2.93416837       0.70385175       8.38469215      -1.08487409       0.71934101       0.71812623
Zn      -0.94400032       3.90466896      26.75192113      -0.84783826      -1.05509843       1.48703149
Zn       1.51195336       0.39453378      11.16528006       0.43699669       0.39840000      -0.71633693
Zn      -0.72575686       3.32227716       0.87280900       0.48993322      -0.17943641       2.19966478
Zn       3.61515749       1.38071360      16.57373044      -0.03058816      -0.09313859      -0.03678098
Zn       0.02184608       0.64096679      20.57998998       0.35828508       0.29202113       0.29339584
Zn       1.22756962       3.78607369      13.82897968       0.59974041       0.50033905      -0.03622270
S        2.28426189       0.11652027      20.51766322      -0.60089981       0.44642952       0.71308318
S        3.68685742       2.62029803      28.41358702      -0.42599114      -0.09273191      -1.40603058
S        2.14270649       2.53333624       6.92963932      -0.22322739      -0.27153957       0.76370689
S        3.95260714       1.93333873       3.08876398      -0.31399644       0.87173179      -0.38348003
S        0.12090905       2.99846474       7.83705475       0.98360937      -0.87270559       0.81532216
S       -0.04403174       1.52565562      13.55453097       0.36262537      -0.27324600      -0.35944314
S       -0.45983032       4.50889802      24.87212626       0.97051020       0.92522156      -1.44718339
S       -0.96651182       3.84682195      13.17737645      -0.83606204      -0.39511017       0.36226856
S        1.19446210       2.31060627       3.09556220       0.35553549      -1.08682920      -0.28598820
S        3.61858166       2.17459900      20.86135411      -0.10550598      -0.41707387       0.04708076
6
Lattice="4.99926778357161 0.0 0.0 2.4990111673282893 4.329896462655602 0.0 2.4995260451512906 1.4433890454671388 4.082284636978517" Properties=species:S:1:pos:R:3:forces:R:3 source=Internal internal_id=mpf-TP-000863 energy_unit=eV forces_unit=eV/A stress_unit=eV/A^3 energy=-35.07269876 stress="-0.15881382063417512 0.005716557707243759 0.02072186933012573 0.005716557707243759 -0.15913221128685193 -0.017127463516661497 0.02072186933012573 -0.017127463516661497 -0.17753201009634909" pbc="T T T"
Tm       2.45487517       1.41617772       1.36800624      -0.65442926       1.51237571       2.01690379
Tm       7.46611103       4.32862770       3.26067994       1.12842684       0.41609380      -1.34179677
Co       5.06700920       2.90382013       2.00621837       0.26630994      -1.48152554      -2.74686453
Co       5.01511662       4.39198711       3.39254590      -0.41477462       1.56471845       2.93846823
Co       3.75902345       2.11939357       3.53435631      -1.30148199      -0.33455712       0.27642330
Co       6.37481055       2.21315155       3.78861732       0.97594908      -1.67710529      -1.14313402
6
Lattice="2.623805048262923 0.0 0.0 -1.311571650075641 6.190234065684741 0.0 -0.0025350814377019 -2.405965155418054 7.037583067873392" Properties=species:S:1:pos:R:3:forces:R:3 source=Internal internal_id=mpf-TP-000756 energy_unit=eV forces_unit=eV/A stress_unit=eV/A^3 energy=-10.05512569 stress="-0.15619073694574787 -0.00016684812805876643 0.002554770289904857 -0.00016684812805876643 -0.018090403188836746 -0.013186956578763731 0.002554770289904857 -0.013186956578763731 -0.054474060741456054" pbc="T T T"
Mg       0.48332693       0.32444567       6.72711305      -0.27872703       1.65421788       1.63028647
Mg      -0.43476131       2.16972080       4.65747951      -0.02615861       0.33173136      -0.38353323
Mg       1.26112325      -0.61452773       4.63286908       0.35978466      -1.03377707      -2.36319894
Mg       0.71601307       1.26731285       2.01965262       0.26133343      -0.21118381       0.85025946
Mg       1.03027873       3.85920402       6.71578255      -0.32463825      -0.90567377       0.12724325
As       1.20398017       4.24757074       2.06432017       0.00840580       0.16468541       0.13894299
2
Lattice="3.6687910000021806 0.0 0.0 -1.83438853589316 3.1772719999942955 0.0 3e-16 5e-16 4.335133" Properties=species:S:1:pos:R:3:forces:R:3 source=Internal internal_id=mpf-TP-000975 energy_unit=eV forces_unit=eV/A stress_unit=eV/A^3 energy=-1.2969109 stress="-0.04484506647221201 0.04217092893058398 -0.006405293197247981 0.04217092893058398 -0.08067805617801212 -0.0004892304380328654 -0.006405293197247981 -0.0004892304380328654 -0.1154863647726996" pbc="T T T"
Yb      -1.14115349       2.55922269       3.13096744       0.57230615       0.04978208       1.25378449
Yb       2.97555595       0.61804931       1.20416556      -0.57230615      -0.04978208      -1.25378449
3
Lattice="4.685718492670468 0.0 0.0 -2.3427430944571697 4.058085693125916 0.0 2.342823311616308 1.3527923825831478 3.8259445582963196" Properties=species:S:1:pos:R:3:forces:R:3 source=Internal internal_id=mpf-TP-000340 energy_unit=eV forces_unit=eV/A stress_unit=eV/A^3 energy=-13.48099414 stress="0.06115205050931175 -0.034226762579158465 -0.031105783752552435 -0.034226762579158465 0.1003916055457648 -0.020840445539223786 -0.031105783752552435 -0.020840445539223786 0.042243382253453" pbc="T T T"
Si       1.15297910       3.87312395       2.46574858       1.91218425       0.64012201       1.47937639
Si      -0.20262696       3.26705342       0.83475224      -1.43754646      -0.46262641      -1.27578697
Ni       0.66645330       1.11440000       0.25144107      -0.47463778      -0.17749560      -0.20358943
18
Lattice="5.765040378291292 0.0 0.0 -0.0021117141803272 5.813713926349165 0.0 -2.86835182665558 -2.8293280295184604 7.560333705279006" Properties=species:S:1:pos:R:3:forces:R:3 source=Internal internal_id=mpf-TP-000399 energy_unit=eV forces_unit=eV/A stress_unit=eV/A^3 energy=-117.10731361 stress="-0.16694143073717232 -0.045920209903739476 -0.01507773367579026 -0.045920209903739476 -0.1509646189751716 -0.03453855152521772 -0.01507773367579026 -0.03453855152521772 -0.11425020331940672" pbc="T T T"
Ca       0.00828680       3.38309023       6.24588653       1.10807540       1.18087304      -1.33680134
Ca      -0.02093483       2.96749657       1.98224390      -1.93817912      -0.19926094      -2.54780062
Ca       2.30824156       0.13099313       1.92799094       1.37255581      -2.37414457       2.20303677
Ca       2.28869087      -0.30409819       5.96239669       3.38119338       1.64627346      -2.34934603
Y        2.59220499       2.81671737       4.06510071      -1.41044206      -3.19595610      -4.96256820
Y       -0.45455758      -0.13539033       4.05889368      -3.28035563      -1.47886612      -0.16983053
W        0.14965409       0.59945700       7.25947779       1.20433732       2.87546311       7.42178457
W        0.11548022       0.21986289       0.07453733      -8.73645724      -5.90630167      -1.31189783
O        0.41501040       3.61769998       3.83049600       1.00208580       1.28510183       2.87729834
O        3.23677895       0.64508405       3.79987664       3.93847906       0.48291853       1.60534986
O        1.11755724       0.92048757       3.99255175       0.02728910       2.94473465       0.09616000
O        3.12812987       3.57929633       1.76391658      -0.13241563       0.70273731       1.44531125
O       -1.03829437      -0.47538095       6.64932106      -3.12330515      -1.87484737      -4.03288384
O        1.01549578       1.38197258       0.93463113       1.89240679       6.18955005       4.78920052
O        3.38969113       3.49753748       5.72784490       0.14737333       1.18855040      -0.65127098
O        3.73169749       1.16989680       0.92185417       3.64959322       0.94861019      -3.58730081
O       -1.17654535       2.18999368       7.30941379       3.27154916      -3.11021555       0.81343968
O        2.32358538       1.28583710       7.47306477      -2.37378354      -1.30522023      -0.30188080
8
Lattice="5.401385 0.0 0.0 5e-16 7.4309196707035525 0.0 5e-16 -3.7154506024656007 6.435374383251995" Properties=species:S:1:pos:R:3:forces:R:3 source=Internal internal_id=mpf-TP-000782 energy_unit=eV forces_unit=eV/A stress_unit=eV/A^3 energy=-7.13568597 stress="-0.01360178776614439 -0.004584078811693519 0.001919873221258279 -0.004584078811693519 -0.013681375695680105 0.010257079130136314 0.001919873221258279 0.010257079130136314 -0.02113755257712471" pbc="T T T"
Ba       3.38521542       1.41759730       5.70611776      -0.53500249      -0.67642287      -0.23439776
Ba       0.53629812       2.84741802       0.73999083      -0.33044261      -0.54509682       1.06321948
Hg       0.47280483       2.52078962       4.30141710       0.64301874       0.56036812      -0.35149683
Hg       3.34429993      -2.98315745       5.26091856       0.08640165       1.19201321       0.24068014
Hg       1.20119781      -0.72550821       4.12510715      -0.14608179      -0.15852529      -0.57440867
Hg       2.95550284       0.83322821       2.02376435       0.93681754       0.38690436       0.10179261
Hg       0.76838483       6.71095438       1.15200924      -0.77806974      -0.63168397      -0.28713200
Hg       3.07376076       4.41388803       2.43557040       0.12335870      -0.12755673       0.04174304
19
Lattice="8.406407843254158 0.0 0.0 -2.802072773098005 7.925654214465065 0.0 -2.802169037434341 -3.9628178226112363 6.863794406939943" Properties=species:S:1:pos:R:3:forces:R:3 source=Internal internal_id=mpf-TP-000295 energy_unit=eV forces_unit=eV/A stress_unit=eV/A^3 energy=-95.41882085 stress="-0.04286682393711783 0.0031643549557404706 -0.010370903459884015 0.0031643549557404706 -0.05808482724802971 0.006310512785382918 -0.010370903459884015 0.006310512785382918 -0.058673140938145435" pbc="T T T"
Nd       4.00124064       3.99216996       1.53676239       0.66970017       1.48137200       1.38956166
Nd      -1.90378716       1.62650462       4.30296076       1.09868971      -0.75353580      -1.68592822
Nd       2.18892648       4.53574297       4.42167695       0.28633245       2.25131807      -0.29614632
Nd       1.00505716       6.14196761       1.24949200      -0.35487525       0.06465087       0.79643894
Nd      -0.56847178       1.11276658       0.56589926      -2.18140189       0.86470335      -1.03054153
Nd       1.79626980       1.89373618       5.99087763       2.05753956      -0.54042738       0.22462975
Nd      -3.05558872       4.08058645       5.83824743      -1.03092113      -0.14289974       0.59368166
Nd       1.89899297      -1.32067585       5.63234733       1.58808373       0.06494376      -0.04365875
Nd      -1.46059059      -0.48403883       6.37155739      -0.17816323      -0.28278832      -1.39792867
Nd      -1.66509152       4.92447890       3.27256794       0.29647230      -1.54675765      -1.36323225
Nd       0.90325544      -0.16416853       2.56122489       0.62988310       0.28999469       0.10309799
Nd       3.88113340       1.31760880       3.29331033      -1.03905091      -1.36342339       1.71712493
Co       6.55711353       4.29532869       0.42538366       0.57220579      -0.18540833      -0.11794704
Co      -1.07527958      -1.20398546       3.42241831      -1.20996451      -0.61802763       0.59583861
Co       4.83953344       1.19035529       0.94963341       0.08426104       1.31063393      -1.55660445
Co      -0.30526359       2.75649877       5.72225617      -1.26678415       2.01295968       0.81600665
Co       5.93511964      -0.36243404       1.59947687       2.09754906      -2.46561504       1.10131005
Co       2.74354283       1.73009252       1.07832956      -2.04165328      -0.41556571      -0.79041649
Sn       0.76890662       2.94507734       2.44392950      -0.07790258      -0.02612737       0.94471348
18
Lattice="8.107683000113783 0.0 0.0 -3.59998479219e-05 8.107699000033856 0.0 -4.053765810144992 -4.053790809828218 6.0682999995805895" Properties=species:S:1:pos:R:3:forces:R:3 source=Internal internal_id=mpf-TP-000428 energy_unit=eV forces_unit=eV/A stress_unit=eV/A^3 energy=-42.37842932 stress="-0.017112871467510057 0.00618076292054205 -0.004113216510867215 0.00618076292054205 -0.011923855667336425 -0.0037851149188357952 -0.004113216510867215 -0.0037851149188357952 0.0035889213057726825" pbc="T T T"
Rb       1.36486173       2.68016482       4.89612896       1.34606420      -0.37428643       0.09958594
Rb       5.09385527       2.45822551       0.37258148      -0.58054167       0.52301386      -0.05646882
Rb       1.28978126       6.09063891       0.16955437      -0.61821530      -0.68511910       0.33407721
Rb       0.96942144       1.17785326       0.33423589       0.39912535       0.73792742       0.31514409
Rb       3.53434648       4.57346500       2.63769582      -0.64854778      -0.10200164       0.05761939
Rb      -1.98603830      -0.18596306       3.26782203       0.19863047       0.08381014       0.14420291
Zn       2.51560810      -0.31454227       3.34991399      -0.32140861       0.86875103       0.06670357
Zn      -1.07056399       3.64898277       3.28346004      -0.52512527      -0.19550246       0.22582186
H        3.46221214      -0.96096445       2.15485940       0.06867769      -0.27148032       0.01301504
H        2.73588495       1.30084196       2.74165794      -0.08737075       0.07558439       0.12987497
H       -0.26419142       5.07280501       2.95210658      -0.43394109      -0.11945875       0.65283113
H       -0.59942453       2.95655154       1.89124031      -0.08058875      -0.60759893       0.15172457
H       -0.88780487       2.63297418       4.91859989      -0.17969059       0.59715758      -0.96485225
H        5.41677906       3.34161531       3.64663566       0.11582841       0.25072986      -0.14532718
H        2.97195187      -0.26703596       4.94827387       0.27143174       0.03275428      -0.23761307
H        0.86645501      -0.72515212       3.40304196       0.43595396       0.16171098      -0.30548617
H        2.21567774       3.49620331       0.13987431       0.34615244       0.27014523      -0.10899608
H        2.62204062      -3.06053146       5.78983178       0.29356556      -1.24613713      -0.37185710
5
Lattice="4.212146 0.0 0.0 3e-16 4.212148 0.0 3e-16 3e-16 4.21215" Properties=species:S:1:pos:R:3:forces:R:3 source=Internal internal_id=mpf-TP-000829 energy_unit=eV forces_unit=eV/A stress_unit=eV/A^3 energy=-32.75212066 stress="-0.008435345245052774 0.016906012725660165 -0.07526264488854537 0.016906012725660165 -0.18924820692902225 0.039540950665206465 -0.07526264488854537 0.039540950665206465 -0.12848353958455166" pbc="T T T"
Sr       1.93405317       2.03761396       1.76920409       2.46339276       0.39900063       0.14261498
Zr       0.42775185       4.20391746       4.17291382      -2.43634935       0.60346396      -2.41377459
O        4.14369020       2.70519308       0.95893386       1.69229285      -2.20014986       2.15829476
O        2.67249291       3.16797757       3.69487692      -2.16273327       0.02287283      -0.98572574
O        2.21738317       0.86686427       3.73290000       0.44339701       1.17481244       1.09859058
4
Lattice="3.191755573382304 0.0 0.0 0.0139470736447489 3.3382559364756244 0.0 0.0039556908380737 0.0008585585719328 4.307982510671692" Properties=species:S:1:pos:R:3:forces:R:3 source=Internal internal_id=mpf-TP-000416 energy_unit=eV forces_unit=eV/A stress_unit=eV/A^3 energy=-17.97048493 stress="-0.16426746147911336 0.0019838785179706947 0.04590415025109821 0.0019838785179706947 -0.17880932630695395 -0.00953387832008989 0.04590415025109821 -0.00953387832008989 -0.011015129974364435" pbc="T T T"
Be       0.92632812       1.69203353       3.99556331       6.13038126      -1.75934611      -1.83490790
Be       3.17452435       1.61878324       1.25380385      -0.98071803      -0.28522724       2.04297919
Be       1.64719155       3.15004907       0.75711500      -0.79402507       1.34911679       3.42222182
Tc       3.16902331       3.32658188       3.73447803      -4.35563815       0.69545656      -3.63029311
14
Lattice="5.209681731407976 0.0 0.0 2.603942512918676 4.513144396877168 0.0 2.6012560113420777 1.5053664632820305 4.258412743928476" Properties=species:S:1:pos:R:3:forces:R:3 source=Internal internal_id=mpf-TP-000570 energy_unit=eV forces_unit=eV/A stress_unit=eV/A^3 energy=-79.91007825 stress="-1.0382142268181573 0.049478481673523124 -0.14815445667374452 0.049478481673523124 -0.9179714795523747 -0.04134785920601045 -0.14815445667374452 -0.04134785920601045 -0.9795998187118223" pbc="T T T"
V        8.90229677       5.17948981       2.81272846       4.94975762      -0.18652532      -0.11968117
V        6.98245893       2.81551692       1.62949016      -1.63119233      -3.66468169      -3.23424159
V        4.96892742       4.28204664       0.66688447       1.42032295       4.98340672      -2.27417985
V        3.97726685       1.99393862       2.49677978      -6.67108239      -3.58439172      -1.07138533
Si       5.73591556       3.67076643       3.66352100       4.02244337       4.37099570       2.46531546
Si       5.52746868       1.17344469       0.20841949      -0.64815275      -3.14075579       0.92563855
O        6.32276586       5.16354664       3.92599253      -1.23586032      -1.31486643      -2.63420907
O        5.73111008       3.99859272       2.15685198      -1.55441097       6.03277043       2.40655471
O        4.19174218       3.67903530       3.80355039      -4.35197297       2.53354285       0.74974630
O        4.97015711       2.48982062       1.03450047       1.61126481      -2.69355653      -3.23464286
O        2.96266020       1.60402142       0.87911525       3.46660956      -1.61608979       5.31488128
O        5.53514538       2.21362987       3.18791592       4.41780713      -5.14920623       1.56292210
O        7.12962794       4.24792726       0.45875880      -2.81391831       3.46891237      -2.03285238
O        7.81221252       3.85353283       2.64503642      -0.98161540      -0.03955456       1.17613386
3
Lattice="4.014103833608818 0.0 0.0 2.0070478511436356 3.476317278074129 0.0 -2.0070506183024968 1.1587666988811685 3.2775049999953616" Properties=species:S:1:pos:R:3:forces:R:3 source=Internal internal_id=mpf-TP-000267 energy_unit=eV forces_unit=eV/A stress_unit=eV/A^3 energy=-19.67044682 stress="-0.13994072577843972 -0.03830763656965229 -0.03156676399680991 -0.03830763656965229 -0.1543019664439732 0.0037633459018952126 -0.03156676399680991 0.0037633459018952126 -0.2502741981154242" pbc="T T T"
Ti       3.87247276       2.41666559       1.70272285      -1.72498122       0.19322227       1.72976705
Si       1.63396298       3.63912703       2.70311897       1.51407422      -0.05769391      -1.95903215
Pt       1.80657476       1.27782547       0.88636845       0.21090700      -0.13552836       0.22926510
2
Lattice="3.13865378144739 0.0 0.0 -1.5693236092856275 2.718152591217743 0.0 4.76411227276e-05 1.93282731206e-05 6.4055949998431645" Properties=species:S:1:pos:R:3:forces:R:3 source=Internal internal_id=mpf-TP-000430 energy_unit=eV forces_unit=eV/A stress_unit=eV/A^3 energy=-8.32426904 stress="-0.07375524001279947 -0.003583449842835205 -0.00048267685969219707 -0.003583449842835205 -0.06818678255050968 -0.00028825956140178375 -0.00048267685969219707 -0.00028825956140178375 0.03525157451854387" pbc="T T T"
Lu      -0.25637307       1.64607604       4.79955860       0.21081733       0.12696530       0.01235369
Lu       1.82575088       1.07209588       1.60603640      -0.21081733      -0.12696530      -0.01235369
12
Lattice="4.992288701206392 0.0 0.0 -0.0040364294603258 4.994387796824572 0.0 -2.493236500558988 -2.4971543687308273 5.233306658857085" Properties=species:S:1:pos:R:3:forces:R:3 source=Internal internal_id=mpf-TP-001001 energy_unit=eV forces_unit=eV/A stress_unit=eV/A^3 energy=-80.50671743 stress="-0.1875620838418865 0.04172260146738499 0.01094062149106102 0.04172260146738499 -0.15875583331318077 -0.004315903296945675 0.01094062149106102 -0.004315903296945675 -0.2221925951099236" pbc="T T T"
Ca       3.53361330       2.79487655       1.60782880       0.05765791      -0.77162360       0.35386037
Ca      -1.08429246       0.29507042       3.90004328      -0.28742380       0.31237396       1.63022566
W        1.20998586       0.10423977       1.24353309       1.07654907       1.21001965      -0.35748826
W        1.25172043       2.73528519       4.14320365      -0.63226942      -0.87520505      -0.91783341
O        0.67749885       1.14677101       4.91056340       0.44992858       0.31784775      -0.76860446
O        4.37614639       0.61639246       0.67485582       1.45052881       1.66902106       4.47499482
O        0.84822076       3.40068241       0.82877261      -0.30607253      -1.36168443      -1.67138591
O        2.64883384      -0.15203890       2.34794920       0.93249007      -3.57324140      -1.95744129
O        1.45148635       1.50445620       2.54690906      -3.07007703       4.34206858       2.17704905
O        0.13876087      -1.25663730       3.05719832       1.35236491       1.32351665      -1.69879009